# vtk DataFile Version 3.0
Scalar Field Data
ASCII
DATASET STRUCTURED_POINTS
DIMENSIONS 100 100 1
ORIGIN 0 0 0
SPACING 0.010101 0.010101 1
POINT_DATA 10000
SCALARS scalars double
LOOKUP_TABLE default
0
0
0
0
0
0
0
0
0
0
0
0
0
0
0
0
0
0
0
0
0
0
0
0
0
0
0
0
0
0
0
0
0
0
0
0
0
0
0
0
0
0
0
0
0
0
0
0
0
0
0
0
0
0
0
0
0
0
0
0
0
0
0
0
0
0
0
0
0
0
0
0
0
0
0
0
0
0
0
0
0
0
0
0
0
0
0
0
0
0
0
0
0
0
0
0
0
0
0
0
0
0.00401996
0.00802374
0.0119952
0.0159184
0.0197774
0.0235569
0.0272415
0.0308163
0.0342671
0.03758
0.0407415
0.0437389
0.0465602
0.0491941
0.0516298
0.0538577
0.0558687
0.0576547
0.0592086
0.0605241
0.0615958
0.0624195
0.0629919
0.0633107
0.0633745
0.0631831
0.0627373
0.0620389
0.0610907
0.0598965
0.0584611
0.0567903
0.0548908
0.0527703
0.0504373
0.0479013
0.0451723
0.0422615
0.0391804
0.0359416
0.0325581
0.0290435
0.025412
0.0216781
0.0178569
0.0139638
0.0100145
0.00602489
0.00201099
-0.00201099
-0.00602489
-0.0100145
-0.0139638
-0.0178569
-0.0216781
-0.025412
-0.0290435
-0.0325581
-0.0359416
-0.0391804
-0.0422615
-0.0451723
-0.0479013
-0.0504373
-0.0527703
-0.0548908
-0.0567903
-0.0584611
-0.0598965
-0.0610907
-0.0620389
-0.0627373
-0.0631831
-0.0633745
-0.0633107
-0.0629919
-0.0624195
-0.0615958
-0.0605241
-0.0592086
-0.0576547
-0.0558687
-0.0538577
-0.0516298
-0.0491941
-0.0465602
-0.0437389
-0.0407415
-0.03758
-0.0342671
-0.0308163
-0.0272415
-0.0235569
-0.0197774
-0.0159184
-0.0119952
-0.00802374
-0.00401996
0
0
0.00802374
0.0160152
0.0239421
0.0317727
0.0394753
0.0470189
0.0543732
0.0615086
0.0683963
0.0750086
0.0813189
0.0873017
0.092933
0.0981901
0.103052
0.107499
0.111512
0.115077
0.118179
0.120804
0.122944
0.124588
0.12573
0.126366
0.126494
0.126112
0.125222
0.123828
0.121935
0.119552
0.116687
0.113352
0.109561
0.105328
0.100672
0.0956097
0.0901627
0.0843527
0.0782031
0.0717386
0.0649852
0.0579701
0.0507216
0.0432689
0.0356419
0.0278714
0.0199887
0.0120255
0.00401389
-0.00401389
-0.0120255
-0.0199887
-0.0278714
-0.0356419
-0.0432689
-0.0507216
-0.0579701
-0.0649852
-0.0717386
-0.0782031
-0.0843527
-0.0901627
-0.0956097
-0.100672
-0.105328
-0.109561
-0.113352
-0.116687
-0.119552
-0.121935
-0.123828
-0.125222
-0.126112
-0.126494
-0.126366
-0.12573
-0.124588
-0.122944
-0.120804
-0.118179
-0.115077
-0.111512
-0.107499
-0.103052
-0.0981901
-0.092933
-0.0873017
-0.0813189
-0.0750086
-0.0683963
-0.0615086
-0.0543732
-0.0470189
-0.0394753
-0.0317727
-0.0239421
-0.0160152
-0.00802374
0
0
0.0119952
0.0239421
0.0357926
0.047499
0.0590141
0.0702916
0.081286
0.0919532
0.10225
0.112135
0.121569
0.130513
0.138932
0.146791
0.154059
0.160706
0.166707
0.172036
0.176673
0.180598
0.183796
0.186254
0.187962
0.188913
0.189104
0.188533
0.187202
0.185118
0.182289
0.178726
0.174443
0.169457
0.163789
0.157462
0.1505
0.142933
0.13479
0.126104
0.116911
0.107247
0.0971505
0.0866633
0.075827
0.0646854
0.0532834
0.0416668
0.0298824
0.0179777
0.00600063
-0.00600063
-0.0179777
-0.0298824
-0.0416668
-0.0532834
-0.0646854
-0.075827
-0.0866633
-0.0971505
-0.107247
-0.116911
-0.126104
-0.13479
-0.142933
-0.1505
-0.157462
-0.163789
-0.169457
-0.174443
-0.178726
-0.182289
-0.185118
-0.187202
-0.188533
-0.189104
-0.188913
-0.187962
-0.186254
-0.183796
-0.180598
-0.176673
-0.172036
-0.166707
-0.160706
-0.154059
-0.146791
-0.138932
-0.130513
-0.121569
-0.112135
-0.10225
-0.0919532
-0.081286
-0.0702916
-0.0590141
-0.047499
-0.0357926
-0.0239421
-0.0119952
0
0
0.0159184
0.0317727
0.047499
0.0630341
0.0783153
0.0932813
0.107872
0.122028
0.135692
0.14881
0.161329
0.173199
0.184371
0.1948
0.204445
0.213267
0.221231
0.228303
0.234456
0.239665
0.243909
0.247171
0.249437
0.2507
0.250952
0.250194
0.248429
0.245664
0.241909
0.23718
0.231496
0.22488
0.217358
0.208962
0.199723
0.189681
0.178875
0.167348
0.155148
0.142323
0.128925
0.115007
0.100627
0.0858415
0.0707103
0.0552944
0.0396558
0.0238575
0.0079632
-0.0079632
-0.0238575
-0.0396558
-0.0552944
-0.0707103
-0.0858415
-0.100627
-0.115007
-0.128925
-0.142323
-0.155148
-0.167348
-0.178875
-0.189681
-0.199723
-0.208962
-0.217358
-0.22488
-0.231496
-0.23718
-0.241909
-0.245664
-0.248429
-0.250194
-0.250952
-0.2507
-0.249437
-0.247171
-0.243909
-0.239665
-0.234456
-0.228303
-0.221231
-0.213267
-0.204445
-0.1948
-0.184371
-0.173199
-0.161329
-0.14881
-0.135692
-0.122028
-0.107872
-0.0932813
-0.0783153
-0.0630341
-0.047499
-0.0317727
-0.0159184
0
0
0.0197774
0.0394753
0.0590141
0.0783153
0.0973012
0.115895
0.134023
0.15161
0.168588
0.184886
0.20044
0.215187
0.229067
0.242025
0.254009
0.264969
0.274863
0.28365
0.291295
0.297767
0.303039
0.307092
0.309908
0.311476
0.31179
0.310849
0.308655
0.305219
0.300554
0.294679
0.287617
0.279397
0.270052
0.25962
0.248142
0.235665
0.222239
0.207918
0.19276
0.176826
0.16018
0.142889
0.125022
0.106652
0.0878525
0.0686993
0.0492695
0.0296413
0.0098937
-0.0098937
-0.0296413
-0.0492695
-0.0686993
-0.0878525
-0.106652
-0.125022
-0.142889
-0.16018
-0.176826
-0.19276
-0.207918
-0.222239
-0.235665
-0.248142
-0.25962
-0.270052
-0.279397
-0.287617
-0.294679
-0.300554
-0.305219
-0.308655
-0.310849
-0.31179
-0.311476
-0.309908
-0.307092
-0.303039
-0.297767
-0.291295
-0.28365
-0.274863
-0.264969
-0.254009
-0.242025
-0.229067
-0.215187
-0.20044
-0.184886
-0.168588
-0.15161
-0.134023
-0.115895
-0.0973012
-0.0783153
-0.0590141
-0.0394753
-0.0197774
0
0
0.0235569
0.0470189
0.0702916
0.0932813
0.115895
0.138043
0.159634
0.180583
0.200805
0.220218
0.238744
0.256309
0.272842
0.288276
0.302549
0.315605
0.327389
0.337855
0.346961
0.354669
0.36095
0.365777
0.369131
0.370999
0.371373
0.370251
0.367639
0.363546
0.35799
0.350992
0.34258
0.33279
0.321659
0.309233
0.295561
0.2807
0.264709
0.247651
0.229596
0.210617
0.19079
0.170194
0.148913
0.127033
0.104641
0.0818276
0.0586848
0.0353057
0.0117844
-0.0117844
-0.0353057
-0.0586848
-0.0818276
-0.104641
-0.127033
-0.148913
-0.170194
-0.19079
-0.210617
-0.229596
-0.247651
-0.264709
-0.2807
-0.295561
-0.309233
-0.321659
-0.33279
-0.34258
-0.350992
-0.35799
-0.363546
-0.367639
-0.370251
-0.371373
-0.370999
-0.369131
-0.365777
-0.36095
-0.354669
-0.346961
-0.337855
-0.327389
-0.315605
-0.302549
-0.288276
-0.272842
-0.256309
-0.238744
-0.220218
-0.200805
-0.180583
-0.159634
-0.138043
-0.115895
-0.0932813
-0.0702916
-0.0470189
-0.0235569
0
0
0.0272415
0.0543732
0.081286
0.107872
0.134023
0.159634
0.184603
0.208828
0.232213
0.254662
0.276086
0.296399
0.315517
0.333366
0.349872
0.364969
0.378597
0.3907
0.40123
0.410144
0.417407
0.422989
0.426867
0.429027
0.42946
0.428163
0.425142
0.420409
0.413984
0.405891
0.396164
0.384842
0.37197
0.3576
0.341791
0.324605
0.306112
0.286387
0.265508
0.24356
0.220632
0.196815
0.172205
0.146902
0.121008
0.0946264
0.0678638
0.0408279
0.0136276
-0.0136276
-0.0408279
-0.0678638
-0.0946264
-0.121008
-0.146902
-0.172205
-0.196815
-0.220632
-0.24356
-0.265508
-0.286387
-0.306112
-0.324605
-0.341791
-0.3576
-0.37197
-0.384842
-0.396164
-0.405891
-0.413984
-0.420409
-0.425142
-0.428163
-0.42946
-0.429027
-0.426867
-0.422989
-0.417407
-0.410144
-0.40123
-0.3907
-0.378597
-0.364969
-0.349872
-0.333366
-0.315517
-0.296399
-0.276086
-0.254662
-0.232213
-0.208828
-0.184603
-0.159634
-0.134023
-0.107872
-0.081286
-0.0543732
-0.0272415
0
0
0.0308163
0.0615086
0.0919532
0.122028
0.15161
0.180583
0.208828
0.236233
0.262686
0.288081
0.312317
0.335295
0.356923
0.377113
0.395785
0.412864
0.42828
0.441971
0.453883
0.463967
0.472183
0.478497
0.482885
0.485329
0.485818
0.484351
0.480933
0.475579
0.468311
0.459156
0.448152
0.435344
0.420783
0.404528
0.386644
0.367203
0.346283
0.323969
0.30035
0.275522
0.249585
0.222643
0.194804
0.16618
0.136888
0.107044
0.0767695
0.0461857
0.0154159
-0.0154159
-0.0461857
-0.0767695
-0.107044
-0.136888
-0.16618
-0.194804
-0.222643
-0.249585
-0.275522
-0.30035
-0.323969
-0.346283
-0.367203
-0.386644
-0.404528
-0.420783
-0.435344
-0.448152
-0.459156
-0.468311
-0.475579
-0.480933
-0.484351
-0.485818
-0.485329
-0.482885
-0.478497
-0.472183
-0.463967
-0.453883
-0.441971
-0.42828
-0.412864
-0.395785
-0.377113
-0.356923
-0.335295
-0.312317
-0.288081
-0.262686
-0.236233
-0.208828
-0.180583
-0.15161
-0.122028
-0.0919532
-0.0615086
-0.0308163
0
0
0.0342671
0.0683963
0.10225
0.135692
0.168588
0.200805
0.232213
0.262686
0.292101
0.320341
0.34729
0.372841
0.396891
0.419342
0.440105
0.459096
0.476238
0.491463
0.504708
0.515922
0.525058
0.532079
0.536958
0.539675
0.540219
0.538588
0.534788
0.528835
0.520752
0.510572
0.498336
0.484094
0.467903
0.449827
0.42994
0.408322
0.38506
0.360247
0.333984
0.306375
0.277533
0.247574
0.216618
0.184789
0.152217
0.119031
0.0853662
0.0513576
0.0171422
-0.0171422
-0.0513576
-0.0853662
-0.119031
-0.152217
-0.184789
-0.216618
-0.247574
-0.277533
-0.306375
-0.333984
-0.360247
-0.38506
-0.408322
-0.42994
-0.449827
-0.467903
-0.484094
-0.498336
-0.510572
-0.520752
-0.528835
-0.534788
-0.538588
-0.540219
-0.539675
-0.536958
-0.532079
-0.525058
-0.515922
-0.504708
-0.491463
-0.476238
-0.459096
-0.440105
-0.419342
-0.396891
-0.372841
-0.34729
-0.320341
-0.292101
-0.262686
-0.232213
-0.200805
-0.168588
-0.135692
-0.10225
-0.0683963
-0.0342671
0
0
0.03758
0.0750086
0.112135
0.14881
0.184886
0.220218
0.254662
0.288081
0.320341
0.35131
0.380865
0.408886
0.435261
0.459883
0.482653
0.50348
0.522279
0.538975
0.553502
0.565799
0.575818
0.583519
0.58887
0.591849
0.592446
0.590657
0.586489
0.57996
0.571096
0.559932
0.546514
0.530895
0.513138
0.493315
0.471505
0.447797
0.422286
0.395074
0.366272
0.335995
0.304364
0.271509
0.237559
0.202654
0.166932
0.130538
0.093619
0.0563226
0.0187994
-0.0187994
-0.0563226
-0.093619
-0.130538
-0.166932
-0.202654
-0.237559
-0.271509
-0.304364
-0.335995
-0.366272
-0.395074
-0.422286
-0.447797
-0.471505
-0.493315
-0.513138
-0.530895
-0.546514
-0.559932
-0.571096
-0.57996
-0.586489
-0.590657
-0.592446
-0.591849
-0.58887
-0.583519
-0.575818
-0.565799
-0.553502
-0.538975
-0.522279
-0.50348
-0.482653
-0.459883
-0.435261
-0.408886
-0.380865
-0.35131
-0.320341
-0.288081
-0.254662
-0.220218
-0.184886
-0.14881
-0.112135
-0.0750086
-0.03758
0
0
0.0407415
0.0813189
0.121569
0.161329
0.20044
0.238744
0.276086
0.312317
0.34729
0.380865
0.412906
0.443284
0.471878
0.498571
0.523257
0.545836
0.566217
0.584318
0.600066
0.613398
0.62426
0.632608
0.638409
0.64164
0.642287
0.640347
0.635829
0.628751
0.619141
0.607038
0.59249
0.575557
0.556307
0.534816
0.511171
0.485469
0.457812
0.428311
0.397085
0.364261
0.32997
0.29435
0.257545
0.219703
0.180976
0.14152
0.101495
0.0610609
0.020381
-0.020381
-0.0610609
-0.101495
-0.14152
-0.180976
-0.219703
-0.257545
-0.29435
-0.32997
-0.364261
-0.397085
-0.428311
-0.457812
-0.485469
-0.511171
-0.534816
-0.556307
-0.575557
-0.59249
-0.607038
-0.619141
-0.628751
-0.635829
-0.640347
-0.642287
-0.64164
-0.638409
-0.632608
-0.62426
-0.613398
-0.600066
-0.584318
-0.566217
-0.545836
-0.523257
-0.498571
-0.471878
-0.443284
-0.412906
-0.380865
-0.34729
-0.312317
-0.276086
-0.238744
-0.20044
-0.161329
-0.121569
-0.0813189
-0.0407415
0
0
0.0437389
0.0873017
0.130513
0.173199
0.215187
0.256309
0.296399
0.335295
0.372841
0.408886
0.443284
0.475898
0.506595
0.535252
0.561754
0.585994
0.607875
0.627308
0.644214
0.658527
0.670188
0.679151
0.685379
0.688847
0.689541
0.687459
0.682608
0.675009
0.664692
0.651699
0.636081
0.617902
0.597235
0.574163
0.54878
0.521186
0.491494
0.459823
0.4263
0.39106
0.354246
0.316006
0.276493
0.235867
0.194291
0.151932
0.108962
0.0655533
0.0218805
-0.0218805
-0.0655533
-0.108962
-0.151932
-0.194291
-0.235867
-0.276493
-0.316006
-0.354246
-0.39106
-0.4263
-0.459823
-0.491494
-0.521186
-0.54878
-0.574163
-0.597235
-0.617902
-0.636081
-0.651699
-0.664692
-0.675009
-0.682608
-0.687459
-0.689541
-0.688847
-0.685379
-0.679151
-0.670188
-0.658527
-0.644214
-0.627308
-0.607875
-0.585994
-0.561754
-0.535252
-0.506595
-0.475898
-0.443284
-0.408886
-0.372841
-0.335295
-0.296399
-0.256309
-0.215187
-0.173199
-0.130513
-0.0873017
-0.0437389
0
0
0.0465602
0.092933
0.138932
0.184371
0.229067
0.272842
0.315517
0.356923
0.396891
0.435261
0.471878
0.506595
0.539272
0.569778
0.59799
0.623793
0.647085
0.667771
0.685769
0.701005
0.713418
0.722959
0.729588
0.73328
0.734019
0.731803
0.726639
0.71855
0.707568
0.693736
0.677111
0.657759
0.635759
0.611199
0.584178
0.554804
0.523197
0.489483
0.453798
0.416285
0.377096
0.336389
0.294328
0.251081
0.206823
0.161732
0.115991
0.0697817
0.0232918
-0.0232918
-0.0697817
-0.115991
-0.161732
-0.206823
-0.251081
-0.294328
-0.336389
-0.377096
-0.416285
-0.453798
-0.489483
-0.523197
-0.554804
-0.584178
-0.611199
-0.635759
-0.657759
-0.677111
-0.693736
-0.707568
-0.71855
-0.726639
-0.731803
-0.734019
-0.73328
-0.729588
-0.722959
-0.713418
-0.701005
-0.685769
-0.667771
-0.647085
-0.623793
-0.59799
-0.569778
-0.539272
-0.506595
-0.471878
-0.435261
-0.396891
-0.356923
-0.315517
-0.272842
-0.229067
-0.184371
-0.138932
-0.092933
-0.0465602
0
0
0.0491941
0.0981901
0.146791
0.1948
0.242025
0.288276
0.333366
0.377113
0.419342
0.459883
0.498571
0.535252
0.569778
0.60201
0.631817
0.65908
0.68369
0.705546
0.724562
0.74066
0.753775
0.763855
0.77086
0.774761
0.775541
0.7732
0.767744
0.759197
0.747594
0.73298
0.715414
0.694968
0.671723
0.645774
0.617224
0.586189
0.552793
0.517172
0.479468
0.439834
0.398428
0.355418
0.310977
0.265284
0.218523
0.170881
0.122552
0.0737292
0.0246094
-0.0246094
-0.0737292
-0.122552
-0.170881
-0.218523
-0.265284
-0.310977
-0.355418
-0.398428
-0.439834
-0.479468
-0.517172
-0.552793
-0.586189
-0.617224
-0.645774
-0.671723
-0.694968
-0.715414
-0.73298
-0.747594
-0.759197
-0.767744
-0.7732
-0.775541
-0.774761
-0.77086
-0.763855
-0.753775
-0.74066
-0.724562
-0.705546
-0.68369
-0.65908
-0.631817
-0.60201
-0.569778
-0.535252
-0.498571
-0.459883
-0.419342
-0.377113
-0.333366
-0.288276
-0.242025
-0.1948
-0.146791
-0.0981901
-0.0491941
0
0
0.0516298
0.103052
0.154059
0.204445
0.254009
0.302549
0.349872
0.395785
0.440105
0.482653
0.523257
0.561754
0.59799
0.631817
0.6631
0.691713
0.717541
0.74048
0.760437
0.777332
0.791097
0.801676
0.809028
0.813121
0.813941
0.811483
0.805758
0.796788
0.784609
0.769272
0.750836
0.729378
0.704982
0.677748
0.647785
0.615213
0.580164
0.542779
0.503208
0.461611
0.418156
0.373016
0.326375
0.278419
0.229343
0.179342
0.12862
0.0773798
0.0258279
-0.0258279
-0.0773798
-0.12862
-0.179342
-0.229343
-0.278419
-0.326375
-0.373016
-0.418156
-0.461611
-0.503208
-0.542779
-0.580164
-0.615213
-0.647785
-0.677748
-0.704982
-0.729378
-0.750836
-0.769272
-0.784609
-0.796788
-0.805758
-0.811483
-0.813941
-0.813121
-0.809028
-0.801676
-0.791097
-0.777332
-0.760437
-0.74048
-0.717541
-0.691713
-0.6631
-0.631817
-0.59799
-0.561754
-0.523257
-0.482653
-0.440105
-0.395785
-0.349872
-0.302549
-0.254009
-0.204445
-0.154059
-0.103052
-0.0516298
0
0
0.0538577
0.107499
0.160706
0.213267
0.264969
0.315605
0.364969
0.412864
0.459096
0.50348
0.545836
0.585994
0.623793
0.65908
0.691713
0.721561
0.748504
0.772432
0.79325
0.810874
0.825233
0.836269
0.843938
0.848208
0.849063
0.846499
0.840527
0.83117
0.818466
0.802466
0.783236
0.760851
0.735403
0.706993
0.675737
0.64176
0.605198
0.5662
0.524922
0.48153
0.436199
0.389112
0.340458
0.290433
0.239239
0.187081
0.13417
0.0807187
0.0269424
-0.0269424
-0.0807187
-0.13417
-0.187081
-0.239239
-0.290433
-0.340458
-0.389112
-0.436199
-0.48153
-0.524922
-0.5662
-0.605198
-0.64176
-0.675737
-0.706993
-0.735403
-0.760851
-0.783236
-0.802466
-0.818466
-0.83117
-0.840527
-0.846499
-0.849063
-0.848208
-0.843938
-0.836269
-0.825233
-0.810874
-0.79325
-0.772432
-0.748504
-0.721561
-0.691713
-0.65908
-0.623793
-0.585994
-0.545836
-0.50348
-0.459096
-0.412864
-0.364969
-0.315605
-0.264969
-0.213267
-0.160706
-0.107499
-0.0538577
0
0
0.0558687
0.111512
0.166707
0.221231
0.274863
0.327389
0.378597
0.42828
0.476238
0.522279
0.566217
0.607875
0.647085
0.68369
0.717541
0.748504
0.776452
0.801274
0.82287
0.841152
0.856047
0.867495
0.87545
0.879879
0.880766
0.878107
0.871911
0.862205
0.849027
0.83243
0.812481
0.78926
0.762862
0.733392
0.700968
0.665723
0.627796
0.587342
0.544522
0.49951
0.452487
0.403641
0.353171
0.301278
0.248172
0.194067
0.13918
0.0837327
0.0279484
-0.0279484
-0.0837327
-0.13918
-0.194067
-0.248172
-0.301278
-0.353171
-0.403641
-0.452487
-0.49951
-0.544522
-0.587342
-0.627796
-0.665723
-0.700968
-0.733392
-0.762862
-0.78926
-0.812481
-0.83243
-0.849027
-0.862205
-0.871911
-0.878107
-0.880766
-0.879879
-0.87545
-0.867495
-0.856047
-0.841152
-0.82287
-0.801274
-0.776452
-0.748504
-0.717541
-0.68369
-0.647085
-0.607875
-0.566217
-0.522279
-0.476238
-0.42828
-0.378597
-0.327389
-0.274863
-0.221231
-0.166707
-0.111512
-0.0558687
0
0
0.0576547
0.115077
0.172036
0.228303
0.28365
0.337855
0.3907
0.441971
0.491463
0.538975
0.584318
0.627308
0.667771
0.705546
0.74048
0.772432
0.801274
0.826889
0.849175
0.868042
0.883413
0.895227
0.903436
0.908008
0.908923
0.906178
0.899785
0.889768
0.876169
0.859041
0.838455
0.814492
0.787249
0.756837
0.723377
0.687005
0.647866
0.606118
0.56193
0.515479
0.466952
0.416545
0.364461
0.310909
0.256105
0.200271
0.143629
0.0864095
0.0288419
-0.0288419
-0.0864095
-0.143629
-0.200271
-0.256105
-0.310909
-0.364461
-0.416545
-0.466952
-0.515479
-0.56193
-0.606118
-0.647866
-0.687005
-0.723377
-0.756837
-0.787249
-0.814492
-0.838455
-0.859041
-0.876169
-0.889768
-0.899785
-0.906178
-0.908923
-0.908008
-0.903436
-0.895227
-0.883413
-0.868042
-0.849175
-0.826889
-0.801274
-0.772432
-0.74048
-0.705546
-0.667771
-0.627308
-0.584318
-0.538975
-0.491463
-0.441971
-0.3907
-0.337855
-0.28365
-0.228303
-0.172036
-0.115077
-0.0576547
0
0
0.0592086
0.118179
0.176673
0.234456
0.291295
0.346961
0.40123
0.453883
0.504708
0.553502
0.600066
0.644214
0.685769
0.724562
0.760437
0.79325
0.82287
0.849175
0.872062
0.891437
0.907222
0.919355
0.927785
0.93248
0.93342
0.930601
0.924035
0.913748
0.899783
0.882193
0.861052
0.836444
0.808467
0.777235
0.742873
0.70552
0.665327
0.622454
0.577074
0.529371
0.479537
0.427772
0.374284
0.319289
0.263008
0.205668
0.1475
0.0887384
0.0296192
-0.0296192
-0.0887384
-0.1475
-0.205668
-0.263008
-0.319289
-0.374284
-0.427772
-0.479537
-0.529371
-0.577074
-0.622454
-0.665327
-0.70552
-0.742873
-0.777235
-0.808467
-0.836444
-0.861052
-0.882193
-0.899783
-0.913748
-0.924035
-0.930601
-0.93342
-0.93248
-0.927785
-0.919355
-0.907222
-0.891437
-0.872062
-0.849175
-0.82287
-0.79325
-0.760437
-0.724562
-0.685769
-0.644214
-0.600066
-0.553502
-0.504708
-0.453883
-0.40123
-0.346961
-0.291295
-0.234456
-0.176673
-0.118179
-0.0592086
0
0
0.0605241
0.120804
0.180598
0.239665
0.297767
0.354669
0.410144
0.463967
0.515922
0.565799
0.613398
0.658527
0.701005
0.74066
0.777332
0.810874
0.841152
0.868042
0.891437
0.911242
0.927378
0.93978
0.948398
0.953197
0.954158
0.951277
0.944565
0.93405
0.919773
0.901794
0.880182
0.855027
0.826429
0.794503
0.759378
0.721195
0.680108
0.636283
0.589896
0.541133
0.490191
0.437275
0.382599
0.326382
0.268851
0.210237
0.150777
0.0907099
0.0302773
-0.0302773
-0.0907099
-0.150777
-0.210237
-0.268851
-0.326382
-0.382599
-0.437275
-0.490191
-0.541133
-0.589896
-0.636283
-0.680108
-0.721195
-0.759378
-0.794503
-0.826429
-0.855027
-0.880182
-0.901794
-0.919773
-0.93405
-0.944565
-0.951277
-0.954158
-0.953197
-0.948398
-0.93978
-0.927378
-0.911242
-0.891437
-0.868042
-0.841152
-0.810874
-0.777332
-0.74066
-0.701005
-0.658527
-0.613398
-0.565799
-0.515922
-0.463967
-0.410144
-0.354669
-0.297767
-0.239665
-0.180598
-0.120804
-0.0605241
0
0
0.0615958
0.122944
0.183796
0.243909
0.303039
0.36095
0.417407
0.472183
0.525058
0.575818
0.62426
0.670188
0.713418
0.753775
0.791097
0.825233
0.856047
0.883413
0.907222
0.927378
0.9438
0.956422
0.965192
0.970076
0.971054
0.968122
0.961291
0.95059
0.936061
0.917762
0.895769
0.870168
0.841063
0.808572
0.772825
0.733966
0.692152
0.64755
0.600341
0.550715
0.498871
0.445019
0.389374
0.332162
0.273612
0.21396
0.153447
0.0923162
0.0308134
-0.0308134
-0.0923162
-0.153447
-0.21396
-0.273612
-0.332162
-0.389374
-0.445019
-0.498871
-0.550715
-0.600341
-0.64755
-0.692152
-0.733966
-0.772825
-0.808572
-0.841063
-0.870168
-0.895769
-0.917762
-0.936061
-0.95059
-0.961291
-0.968122
-0.971054
-0.970076
-0.965192
-0.956422
-0.9438
-0.927378
-0.907222
-0.883413
-0.856047
-0.825233
-0.791097
-0.753775
-0.713418
-0.670188
-0.62426
-0.575818
-0.525058
-0.472183
-0.417407
-0.36095
-0.303039
-0.243909
-0.183796
-0.122944
-0.0615958
0
0
0.0624195
0.124588
0.186254
0.247171
0.307092
0.365777
0.422989
0.478497
0.532079
0.583519
0.632608
0.679151
0.722959
0.763855
0.801676
0.836269
0.867495
0.895227
0.919355
0.93978
0.956422
0.969212
0.9781
0.983049
0.98404
0.981069
0.974147
0.963302
0.948579
0.930036
0.907748
0.881805
0.852311
0.819385
0.78316
0.743782
0.701408
0.65621
0.60837
0.55808
0.505543
0.45097
0.394581
0.336604
0.277271
0.216822
0.155499
0.0935507
0.0312255
-0.0312255
-0.0935507
-0.155499
-0.216822
-0.277271
-0.336604
-0.394581
-0.45097
-0.505543
-0.55808
-0.60837
-0.65621
-0.701408
-0.743782
-0.78316
-0.819385
-0.852311
-0.881805
-0.907748
-0.930036
-0.948579
-0.963302
-0.974147
-0.981069
-0.98404
-0.983049
-0.9781
-0.969212
-0.956422
-0.93978
-0.919355
-0.895227
-0.867495
-0.836269
-0.801676
-0.763855
-0.722959
-0.679151
-0.632608
-0.583519
-0.532079
-0.478497
-0.422989
-0.365777
-0.307092
-0.247171
-0.186254
-0.124588
-0.0624195
0
0
0.0629919
0.12573
0.187962
0.249437
0.309908
0.369131
0.426867
0.482885
0.536958
0.58887
0.638409
0.685379
0.729588
0.77086
0.809028
0.843938
0.87545
0.903436
0.927785
0.948398
0.965192
0.9781
0.987069
0.992064
0.993064
0.990065
0.98308
0.972136
0.957277
0.938564
0.916072
0.889891
0.860127
0.826899
0.790342
0.750602
0.70784
0.662227
0.613949
0.563197
0.510179
0.455105
0.3982
0.339691
0.279814
0.21881
0.156925
0.0944086
0.0315118
-0.0315118
-0.0944086
-0.156925
-0.21881
-0.279814
-0.339691
-0.3982
-0.455105
-0.510179
-0.563197
-0.613949
-0.662227
-0.70784
-0.750602
-0.790342
-0.826899
-0.860127
-0.889891
-0.916072
-0.938564
-0.957277
-0.972136
-0.98308
-0.990065
-0.993064
-0.992064
-0.987069
-0.9781
-0.965192
-0.948398
-0.927785
-0.903436
-0.87545
-0.843938
-0.809028
-0.77086
-0.729588
-0.685379
-0.638409
-0.58887
-0.536958
-0.482885
-0.426867
-0.369131
-0.309908
-0.249437
-0.187962
-0.12573
-0.0629919
0
0
0.0633107
0.126366
0.188913
0.2507
0.311476
0.370999
0.429027
0.485329
0.539675
0.591849
0.64164
0.688847
0.73328
0.774761
0.813121
0.848208
0.879879
0.908008
0.93248
0.953197
0.970076
0.983049
0.992064
0.997084
0.998089
0.995075
0.988054
0.977055
0.962121
0.943313
0.920707
0.894394
0.864479
0.831083
0.794341
0.7544
0.711422
0.665578
0.617055
0.566047
0.51276
0.457408
0.400215
0.341409
0.281229
0.219917
0.157719
0.0948863
0.0316713
-0.0316713
-0.0948863
-0.157719
-0.219917
-0.281229
-0.341409
-0.400215
-0.457408
-0.51276
-0.566047
-0.617055
-0.665578
-0.711422
-0.7544
-0.794341
-0.831083
-0.864479
-0.894394
-0.920707
-0.943313
-0.962121
-0.977055
-0.988054
-0.995075
-0.998089
-0.997084
-0.992064
-0.983049
-0.970076
-0.953197
-0.93248
-0.908008
-0.879879
-0.848208
-0.813121
-0.774761
-0.73328
-0.688847
-0.64164
-0.591849
-0.539675
-0.485329
-0.429027
-0.370999
-0.311476
-0.2507
-0.188913
-0.126366
-0.0633107
0
0
0.0633745
0.126494
0.189104
0.250952
0.31179
0.371373
0.42946
0.485818
0.540219
0.592446
0.642287
0.689541
0.734019
0.775541
0.813941
0.849063
0.880766
0.908923
0.93342
0.954158
0.971054
0.98404
0.993064
0.998089
0.999095
0.996078
0.98905
0.978039
0.963091
0.944264
0.921635
0.895295
0.86535
0.831921
0.795142
0.75516
0.712139
0.666249
0.617677
0.566618
0.513277
0.457869
0.400618
0.341754
0.281513
0.220139
0.157878
0.0949819
0.0317032
-0.0317032
-0.0949819
-0.157878
-0.220139
-0.281513
-0.341754
-0.400618
-0.457869
-0.513277
-0.566618
-0.617677
-0.666249
-0.712139
-0.75516
-0.795142
-0.831921
-0.86535
-0.895295
-0.921635
-0.944264
-0.963091
-0.978039
-0.98905
-0.996078
-0.999095
-0.998089
-0.993064
-0.98404
-0.971054
-0.954158
-0.93342
-0.908923
-0.880766
-0.849063
-0.813941
-0.775541
-0.734019
-0.689541
-0.642287
-0.592446
-0.540219
-0.485818
-0.42946
-0.371373
-0.31179
-0.250952
-0.189104
-0.126494
-0.0633745
0
0
0.0631831
0.126112
0.188533
0.250194
0.310849
0.370251
0.428163
0.484351
0.538588
0.590657
0.640347
0.687459
0.731803
0.7732
0.811483
0.846499
0.878107
0.906178
0.930601
0.951277
0.968122
0.981069
0.990065
0.995075
0.996078
0.99307
0.986063
0.975086
0.960183
0.941413
0.918852
0.892592
0.862737
0.829409
0.79274
0.75288
0.709988
0.664237
0.615812
0.564907
0.511727
0.456487
0.399408
0.340722
0.280663
0.219474
0.157401
0.0946951
0.0316075
-0.0316075
-0.0946951
-0.157401
-0.219474
-0.280663
-0.340722
-0.399408
-0.456487
-0.511727
-0.564907
-0.615812
-0.664237
-0.709988
-0.75288
-0.79274
-0.829409
-0.862737
-0.892592
-0.918852
-0.941413
-0.960183
-0.975086
-0.986063
-0.99307
-0.996078
-0.995075
-0.990065
-0.981069
-0.968122
-0.951277
-0.930601
-0.906178
-0.878107
-0.846499
-0.811483
-0.7732
-0.731803
-0.687459
-0.640347
-0.590657
-0.538588
-0.484351
-0.428163
-0.370251
-0.310849
-0.250194
-0.188533
-0.126112
-0.0631831
0
0
0.0627373
0.125222
0.187202
0.248429
0.308655
0.367639
0.425142
0.480933
0.534788
0.586489
0.635829
0.682608
0.726639
0.767744
0.805758
0.840527
0.871911
0.899785
0.924035
0.944565
0.961291
0.974147
0.98308
0.988054
0.98905
0.986063
0.979106
0.968206
0.953408
0.934771
0.912369
0.886294
0.85665
0.823557
0.787147
0.747568
0.704979
0.659551
0.611467
0.560921
0.508117
0.453266
0.39659
0.338318
0.278683
0.217926
0.156291
0.094027
0.0313845
-0.0313845
-0.094027
-0.156291
-0.217926
-0.278683
-0.338318
-0.39659
-0.453266
-0.508117
-0.560921
-0.611467
-0.659551
-0.704979
-0.747568
-0.787147
-0.823557
-0.85665
-0.886294
-0.912369
-0.934771
-0.953408
-0.968206
-0.979106
-0.986063
-0.98905
-0.988054
-0.98308
-0.974147
-0.961291
-0.944565
-0.924035
-0.899785
-0.871911
-0.840527
-0.805758
-0.767744
-0.726639
-0.682608
-0.635829
-0.586489
-0.534788
-0.480933
-0.425142
-0.367639
-0.308655
-0.248429
-0.187202
-0.125222
-0.0627373
0
0
0.0620389
0.123828
0.185118
0.245664
0.305219
0.363546
0.420409
0.475579
0.528835
0.57996
0.628751
0.675009
0.71855
0.759197
0.796788
0.83117
0.862205
0.889768
0.913748
0.93405
0.95059
0.963302
0.972136
0.977055
0.978039
0.975086
0.968206
0.957428
0.942794
0.924364
0.902212
0.876428
0.847114
0.814389
0.778384
0.739246
0.697131
0.652208
0.60466
0.554677
0.50246
0.44822
0.392175
0.334551
0.27558
0.2155
0.154551
0.0929803
0.0310351
-0.0310351
-0.0929803
-0.154551
-0.2155
-0.27558
-0.334551
-0.392175
-0.44822
-0.50246
-0.554677
-0.60466
-0.652208
-0.697131
-0.739246
-0.778384
-0.814389
-0.847114
-0.876428
-0.902212
-0.924364
-0.942794
-0.957428
-0.968206
-0.975086
-0.978039
-0.977055
-0.972136
-0.963302
-0.95059
-0.93405
-0.913748
-0.889768
-0.862205
-0.83117
-0.796788
-0.759197
-0.71855
-0.675009
-0.628751
-0.57996
-0.528835
-0.475579
-0.420409
-0.363546
-0.305219
-0.245664
-0.185118
-0.123828
-0.0620389
0
0
0.0610907
0.121935
0.182289
0.241909
0.300554
0.35799
0.413984
0.468311
0.520752
0.571096
0.619141
0.664692
0.707568
0.747594
0.784609
0.818466
0.849027
0.876169
0.899783
0.919773
0.936061
0.948579
0.957277
0.962121
0.963091
0.960183
0.953408
0.942794
0.928384
0.910236
0.888423
0.863032
0.834166
0.801941
0.766487
0.727947
0.686476
0.64224
0.595418
0.546199
0.49478
0.441369
0.386181
0.329438
0.271368
0.212206
0.152189
0.0915591
0.0305607
-0.0305607
-0.0915591
-0.152189
-0.212206
-0.271368
-0.329438
-0.386181
-0.441369
-0.49478
-0.546199
-0.595418
-0.64224
-0.686476
-0.727947
-0.766487
-0.801941
-0.834166
-0.863032
-0.888423
-0.910236
-0.928384
-0.942794
-0.953408
-0.960183
-0.963091
-0.962121
-0.957277
-0.948579
-0.936061
-0.919773
-0.899783
-0.876169
-0.849027
-0.818466
-0.784609
-0.747594
-0.707568
-0.664692
-0.619141
-0.571096
-0.520752
-0.468311
-0.413984
-0.35799
-0.300554
-0.241909
-0.182289
-0.121935
-0.0610907
0
0
0.0598965
0.119552
0.178726
0.23718
0.294679
0.350992
0.405891
0.459156
0.510572
0.559932
0.607038
0.651699
0.693736
0.73298
0.769272
0.802466
0.83243
0.859041
0.882193
0.901794
0.917762
0.930036
0.938564
0.943313
0.944264
0.941413
0.934771
0.924364
0.910236
0.892443
0.871056
0.846161
0.81786
0.786265
0.751504
0.713717
0.673056
0.629685
0.583779
0.535522
0.485108
0.432741
0.378632
0.322998
0.266063
0.208058
0.149214
0.0897693
0.0299633
-0.0299633
-0.0897693
-0.149214
-0.208058
-0.266063
-0.322998
-0.378632
-0.432741
-0.485108
-0.535522
-0.583779
-0.629685
-0.673056
-0.713717
-0.751504
-0.786265
-0.81786
-0.846161
-0.871056
-0.892443
-0.910236
-0.924364
-0.934771
-0.941413
-0.944264
-0.943313
-0.938564
-0.930036
-0.917762
-0.901794
-0.882193
-0.859041
-0.83243
-0.802466
-0.769272
-0.73298
-0.693736
-0.651699
-0.607038
-0.559932
-0.510572
-0.459156
-0.405891
-0.350992
-0.294679
-0.23718
-0.178726
-0.119552
-0.0598965
0
0
0.0584611
0.116687
0.174443
0.231496
0.287617
0.34258
0.396164
0.448152
0.498336
0.546514
0.59249
0.636081
0.677111
0.715414
0.750836
0.783236
0.812481
0.838455
0.861052
0.880182
0.895769
0.907748
0.916072
0.920707
0.921635
0.918852
0.912369
0.902212
0.888423
0.871056
0.850181
0.825883
0.79826
0.767422
0.733495
0.696613
0.656927
0.614595
0.569789
0.522688
0.473483
0.422371
0.369558
0.315258
0.259687
0.203072
0.145638
0.087618
0.0292453
-0.0292453
-0.087618
-0.145638
-0.203072
-0.259687
-0.315258
-0.369558
-0.422371
-0.473483
-0.522688
-0.569789
-0.614595
-0.656927
-0.696613
-0.733495
-0.767422
-0.79826
-0.825883
-0.850181
-0.871056
-0.888423
-0.902212
-0.912369
-0.918852
-0.921635
-0.920707
-0.916072
-0.907748
-0.895769
-0.880182
-0.861052
-0.838455
-0.812481
-0.783236
-0.750836
-0.715414
-0.677111
-0.636081
-0.59249
-0.546514
-0.498336
-0.448152
-0.396164
-0.34258
-0.287617
-0.231496
-0.174443
-0.116687
-0.0584611
0
0
0.0567903
0.113352
0.169457
0.22488
0.279397
0.33279
0.384842
0.435344
0.484094
0.530895
0.575557
0.617902
0.657759
0.694968
0.729378
0.760851
0.78926
0.814492
0.836444
0.855027
0.870168
0.881805
0.889891
0.894394
0.895295
0.892592
0.886294
0.876428
0.863032
0.846161
0.825883
0.80228
0.775446
0.74549
0.712532
0.676704
0.638152
0.59703
0.553505
0.50775
0.459951
0.4103
0.358996
0.306248
0.252266
0.197268
0.141476
0.0851139
0.0284094
-0.0284094
-0.0851139
-0.141476
-0.197268
-0.252266
-0.306248
-0.358996
-0.4103
-0.459951
-0.50775
-0.553505
-0.59703
-0.638152