# vtk DataFile Version 3.0
Scalar Field Data
ASCII
DATASET STRUCTURED_POINTS
DIMENSIONS 20 20 1
ORIGIN 0 0 0
SPACING 0.0526316 0.0526316 1
POINT_DATA 400
SCALARS scalars double
LOOKUP_TABLE default
0
0
0
0
0
0
0
0
0
0
0
0
0
0
0
0
0
0
0
0
0
0.106392
0.201255
0.274309
0.317637
0.326545
0.300066
0.24107
0.155951
0.0539317
-0.0539317
-0.155951
-0.24107
-0.300066
-0.326545
-0.317637
-0.274309
-0.201255
-0.106392
0
0
0.201255
0.380701
0.518893
0.600854
0.617703
0.567615
0.456017
0.295002
0.102019
-0.102019
-0.295002
-0.456017
-0.567615
-0.617703
-0.600854
-0.518893
-0.380701
-0.201255
0
0
0.274309
0.518893
0.707246
0.818958
0.841924
0.773654
0.621546
0.402085
0.139051
-0.139051
-0.402085
-0.621546
-0.773654
-0.841924
-0.818958
-0.707246
-0.518893
-0.274309
0
0
0.317637
0.600854
0.818958
0.948316
0.974909
0.895856
0.719722
0.465596
0.161015
-0.161015
-0.465596
-0.719722
-0.895856
-0.974909
-0.948316
-0.818958
-0.600854
-0.317637
0
0
0.326545
0.617703
0.841924
0.974909
1.00225
0.920977
0.739905
0.478652
0.16553
-0.16553
-0.478652
-0.739905
-0.920977
-1.00225
-0.974909
-0.841924
-0.617703
-0.326545
0
0
0.300066
0.567615
0.773654
0.895856
0.920977
0.846297
0.679907
0.439839
0.152107
-0.152107
-0.439839
-0.679907
-0.846297
-0.920977
-0.895856
-0.773654
-0.567615
-0.300066
0
0
0.24107
0.456017
0.621546
0.719722
0.739905
0.679907
0.546231
0.353363
0.122202
-0.122202
-0.353363
-0.546231
-0.679907
-0.739905
-0.719722
-0.621546
-0.456017
-0.24107
0
0
0.155951
0.295002
0.402085
0.465596
0.478652
0.439839
0.353363
0.228594
0.0790536
-0.0790536
-0.228594
-0.353363
-0.439839
-0.478652
-0.465596
-0.402085
-0.295002
-0.155951
0
0
0.0539317
0.102019
0.139051
0.161015
0.16553
0.152107
0.122202
0.0790536
0.0273387
-0.0273387
-0.0790536
-0.122202
-0.152107
-0.16553
-0.161015
-0.139051
-0.102019
-0.0539317
0
0
-0.0539317
-0.102019
-0.139051
-0.161015
-0.16553
-0.152107
-0.122202
-0.0790536
-0.0273387
0.0273387
0.0790536
0.122202
0.152107
0.16553
0.161015
0.139051
0.102019
0.0539317
0
0
-0.155951
-0.295002
-0.402085
-0.465596
-0.478652
-0.439839
-0.353363
-0.228594
-0.0790536
0.0790536
0.228594
0.353363
0.439839
0.478652
0.465596
0.402085
0.295002
0.155951
0
0
-0.24107
-0.456017
-0.621546
-0.719722
-0.739905
-0.679907
-0.546231
-0.353363
-0.122202
0.122202
0.353363
0.546231
0.679907
0.739905
0.719722
0.621546
0.456017
0.24107
0
0
-0.300066
-0.567615
-0.773654
-0.895856
-0.920977
-0.846297
-0.679907
-0.439839
-0.152107
0.152107
0.439839
0.679907
0.846297
0.920977
0.895856
0.773654
0.567615
0.300066
0
0
-0.326545
-0.617703
-0.841924
-0.974909
-1.00225
-0.920977
-0.739905
-0.478652
-0.16553
0.16553
0.478652
0.739905
0.920977
1.00225
0.974909
0.841924
0.617703
0.326545
0
0
-0.317637
-0.600854
-0.818958
-0.948316
-0.974909
-0.895856
-0.719722
-0.465596
-0.161015
0.161015
0.465596
0.719722
0.895856
0.974909
0.948316
0.818958
0.600854
0.317637
0
0
-0.274309
-0.518893
-0.707246
-0.818958
-0.841924
-0.773654
-0.621546
-0.402085
-0.139051
0.139051
0.402085
0.621546
0.773654
0.841924
0.818958
0.707246
0.518893
0.274309
0
0
-0.201255
-0.380701
-0.518893
-0.600854
-0.617703
-0.567615
-0.456017
-0.295002
-0.102019
0.102019
0.295002
0.456017
0.567615
0.617703
0.600854
0.518893
0.380701
0.201255
0
0
-0.106392
-0.201255
-0.274309
-0.317637
-0.326545
-0.300066
-0.24107
-0.155951
-0.0539317
0.0539317
0.155951
0.24107
0.300066
0.326545
0.317637
0.274309
0.201255
0.106392
0
0
0
0
0
0
0
0
0
0
0
0
0
0
0
0
0
0
0
0
0
