# vtk DataFile Version 3.0
Scalar Field Data
ASCII
DATASET STRUCTURED_POINTS
DIMENSIONS 10 10 1
ORIGIN 0 0 0
SPACING 0.111111 0.111111 1
POINT_DATA 100
SCALARS scalars double
LOOKUP_TABLE default
0
0
0
0
0
0
0
0
0
0
0
0.541806
0.714835
0.605289
0.236335
-0.236335
-0.605289
-0.714835
-0.541806
0
0
0.830095
1.09519
0.927356
0.362087
-0.362087
-0.927356
-1.09519
-0.830095
0
0
0.729973
0.963095
0.815504
0.318414
-0.318414
-0.815504
-0.963095
-0.729973
0
0
0.288289
0.380356
0.322068
0.125751
-0.125751
-0.322068
-0.380356
-0.288289
0
0
-0.288289
-0.380356
-0.322068
-0.125751
0.125751
0.322068
0.380356
0.288289
0
0
-0.729973
-0.963095
-0.815504
-0.318414
0.318414
0.815504
0.963095
0.729973
0
0
-0.830095
-1.09519
-0.927356
-0.362087
0.362087
0.927356
1.09519
0.830095
0
0
-0.541806
-0.714835
-0.605289
-0.236335
0.236335
0.605289
0.714835
0.541806
0
0
0
0
0
0
0
0
0
0
0
